tmpdir is set to /home/jyu5/work/testsets/ge
#INFO: **** input file is /home/jyu5/work/testsets/ge/pyscf_ge.py ****
#!/usr/bin/env python

from pyscf.pbc import gto, scf, dft
import numpy
import time
from pyscf.pbc.tools import lattice,pyscf_ase
import ase

cell = gto.Cell()
ase_atom = lattice.get_ase_atom('ge')
cell.atom=pyscf_ase.ase_atoms_to_pyscf(ase_atom)
cell.a=ase_atom.cell
cell.basis = 'gth-dzvp'
cell.pseudo = 'gth-pade'
cell.verbose=4
cell.build()

#mf = scf.RHF(cell)
#ehf = mf.kernel()
#print("HF energy (per unit cell) = %.17g" % ehf)

start = time.time()

mf = dft.RKS(cell)
mf = mf.newton()
mf.xc = 'lda'
mf.direct_scf=True
edft = mf.kernel()
print("DFT energy (per unit cell) = %.17g" % edft)


end = time.time()
print 'DFT compute time', (end-start)

#INFO: ******************** input file end ********************


System: ('Linux', 'pauling049', '3.10.0-327.36.3.el7.x86_64', '#1 SMP Thu Oct 20 04:56:07 EDT 2016', 'x86_64', 'x86_64')  Threads 1
Python 2.7.12 |Anaconda custom (64-bit)| (default, Jul  2 2016, 17:42:40) 
[GCC 4.4.7 20120313 (Red Hat 4.4.7-1)]
numpy 1.14.3  scipy 1.1.0
Date: Wed May  9 12:16:36 2018
PySCF version 1.5b
PySCF path  /home/jyu5/pyscf/pyscf
GIT HEAD      ref: refs/heads/dev
GIT dev branch  712e40e23e7a7c928f2e0c27498b3fa5f122454b

[ENV] PYSCF_MAX_MEMORY 20000
[ENV] PYSCF_TMPDIR /scratch/local/jyu5
[CONFIG] conf_file None
[INPUT] verbose = 4
[INPUT] num. atoms = 2
[INPUT] num. electrons = 8
[INPUT] charge = 0
[INPUT] spin (= nelec alpha-beta = 2S) = 0
[INPUT] symmetry False subgroup None
[INPUT] Mole.unit = angstrom
[INPUT]  1 Ge     0.000000000000   0.000000000000   0.000000000000 AA    0.000000000000   0.000000000000   0.000000000000 Bohr
[INPUT]  2 Ge     2.673017411441   2.673017411441   2.673017411441 AA    5.051270833816   5.051270833816   5.051270833816 Bohr

nuclear repulsion = -4.26569726705658
number of shells = 6
number of NR pGTOs = 72
number of NR cGTOs = 26
basis = gth-dzvp
ecp = {}
CPU time:         0.41
lattice vectors  a1 [0.000000000, 10.102541668, 10.102541668]
                 a2 [10.102541668, 0.000000000, 10.102541668]
                 a3 [10.102541668, 10.102541668, 0.000000000]
dimension = 3
Cell volume = 2062.16
rcut = 22.132161708632857 (nimgs = [2 2 2])
lattice sum = 117 cells
precision = 1e-08
pseudo = gth-pade
ke_cutoff = 106.69992906826303
    = [55 55 55] mesh (166375 PWs)
ew_eta = 1.41771
ew_cut = 4.790512677737012 (nimgs = [1 1 1])

WARN: HOMO 0.00834140179477898 == LUMO 0.00834140179477942



******** <class 'pyscf.soscf.newton_ah.SecondOrderRHF'> flags ********
method = SecondOrderRHF-RKS-RHF-SCF
initial guess = minao
damping factor = 0
level shift factor = 0
DIIS = <class 'pyscf.scf.diis.CDIIS'>
DIIS start cycle = 1
DIIS space = 8
SCF tol = 1e-09
SCF gradient tol = None
max. SCF cycles = 50
direct_scf = True
direct_scf_tol = 1e-13
chkfile to save SCF result = /scratch/local/jyu5/tmpt89sPw
max_memory 20000 MB (current use 90 MB)
******** PBC SCF flags ********
kpt = [0. 0. 0.]
Exchange divergence treatment (exxdiv) = ewald
    madelung (= occupied orbital energy shift) = 0.22691626664627962
    Total energy shift due to Ewald probe charge = -1/2 * Nelec*madelung/cell.vol = -0.907665066585
DF object = <pyscf.pbc.df.fft.FFTDF object at 0x7ff83e6657d0>


******** <class 'pyscf.pbc.df.fft.FFTDF'> flags ********
mesh = [55 55 55] (166375 PWs)
len(kpts) = 1
XC functionals = lda
Uniform grid, mesh = [55 55 55]
Set conv_tol_grad to 3.16228e-05
Initial guess |g|= 0.2005
  HOMO = -0.105759954798976  LUMO = -0.10084888223682
macro= 0  E= -7.63002471105802  delta_E= -7.63002  |g|= 0.0103993  4 KF 25 JK
macro= 1  E= -7.63007594728952  delta_E= -5.12362e-05  |g|= 0.0012465  3 KF 13 JK
macro= 2  E= -7.63007730728051  delta_E= -1.35999e-06  |g|= 7.11621e-05  2 KF 13 JK
macro= 3  E= -7.63007739803925  delta_E= -9.07587e-08  |g|= 4.59598e-05  1 KF 9 JK
macro= 4  E= -7.63007742437362  delta_E= -2.63344e-08  |g|= 2.18437e-05  1 KF 6 JK
macro= 5  E= -7.63007743192051  delta_E= -7.5469e-09  |g|= 1.52926e-05  1 KF 5 JK
macro= 6  E= -7.63007743346183  delta_E= -1.54132e-09  |g|= 1.32303e-05  1 KF 6 JK
macro= 7  E= -7.6300774348499  delta_E= -1.38806e-09  |g|= 2.30173e-05  1 KF 6 JK
macro= 8  E= -7.63007743485522  delta_E= -5.32197e-12  |g|= 7.17078e-06  1 KF 2 JK
Canonicalize SCF orbitals
macro X = 9  E=-7.63007743485522  |g|= 7.17078e-06  total 15 KF 85 JK

WARN: HOMO -0.08370867963227359 > LUMO -0.1008149808910241 was found in the canonicalized orbitals.

converged SCF energy = -7.63007743485522
DFT energy (per unit cell) = -7.6300774348552212
DFT compute time 135.684010983
