tmpdir is set to /home/jyu5/work/testsets/gan
#INFO: **** input file is /home/jyu5/work/testsets/gan/pyscf_gan.py ****
#!/usr/bin/env python

from pyscf.pbc import gto, scf, dft
import numpy
import time
from pyscf.pbc.tools import lattice,pyscf_ase
import ase

cell = gto.Cell()
ase_atom = lattice.get_ase_atom('gan')
cell.atom=pyscf_ase.ase_atoms_to_pyscf(ase_atom)
cell.a=ase_atom.cell
cell.basis = 'gth-dzvp'
cell.pseudo = 'gth-pade'
cell.verbose=4
cell.build()

#mf = scf.RHF(cell)
#ehf = mf.kernel()
#print("HF energy (per unit cell) = %.17g" % ehf)

start = time.time()

mf = dft.RKS(cell)
mf = mf.newton()
mf.xc = 'lda'
mf.direct_scf=True
edft = mf.kernel()
print("DFT energy (per unit cell) = %.17g" % edft)


end = time.time()
print 'DFT compute time', (end-start)

#INFO: ******************** input file end ********************


System: ('Linux', 'pauling049', '3.10.0-327.36.3.el7.x86_64', '#1 SMP Thu Oct 20 04:56:07 EDT 2016', 'x86_64', 'x86_64')  Threads 1
Python 2.7.12 |Anaconda custom (64-bit)| (default, Jul  2 2016, 17:42:40) 
[GCC 4.4.7 20120313 (Red Hat 4.4.7-1)]
numpy 1.14.3  scipy 1.1.0
Date: Wed May  9 13:47:00 2018
PySCF version 1.5b
PySCF path  /home/jyu5/pyscf/pyscf
GIT HEAD      ref: refs/heads/dev
GIT dev branch  712e40e23e7a7c928f2e0c27498b3fa5f122454b

[ENV] PYSCF_MAX_MEMORY 20000
[ENV] PYSCF_TMPDIR /scratch/local/jyu5
[CONFIG] conf_file None
[INPUT] verbose = 4
[INPUT] num. atoms = 2
[INPUT] num. electrons = 18
[INPUT] charge = 0
[INPUT] spin (= nelec alpha-beta = 2S) = 0
[INPUT] symmetry False subgroup None
[INPUT] Mole.unit = angstrom
[INPUT]  1 Ga     0.000000000000   0.000000000000   0.000000000000 AA    0.000000000000   0.000000000000   0.000000000000 Bohr
[INPUT]  2 N      2.135390367570   2.135390367570   2.135390367570 AA    4.035302963742   4.035302963742   4.035302963742 Bohr

nuclear repulsion = -30.7819179996707
number of shells = 7
number of NR pGTOs = 117
number of NR cGTOs = 38
basis = gth-dzvp
ecp = {}
CPU time:         0.53
lattice vectors  a1 [0.000000000, 8.070605927, 8.070605927]
                 a2 [8.070605927, 0.000000000, 8.070605927]
                 a3 [8.070605927, 8.070605927, 0.000000000]
dimension = 3
Cell volume = 1051.35
rcut = 29.629439085471653 (nimgs = [4 4 4])
lattice sum = 341 cells
precision = 1e-08
pseudo = gth-pade
ke_cutoff = 383.4641078128986
    = [83 83 83] mesh (571787 PWs)
ew_eta = 2.56947
ew_cut = 2.7153898355859396 (nimgs = [1 1 1])

WARN: HOMO -0.100943277495237 == LUMO -0.100943277495235



******** <class 'pyscf.soscf.newton_ah.SecondOrderRHF'> flags ********
method = SecondOrderRHF-RKS-RHF-SCF
initial guess = minao
damping factor = 0
level shift factor = 0
DIIS = <class 'pyscf.scf.diis.CDIIS'>
DIIS start cycle = 1
DIIS space = 8
SCF tol = 1e-09
SCF gradient tol = None
max. SCF cycles = 50
direct_scf = True
direct_scf_tol = 1e-13
chkfile to save SCF result = /scratch/local/jyu5/tmpREE6BG
max_memory 20000 MB (current use 140 MB)
******** PBC SCF flags ********
kpt = [0. 0. 0.]
Exchange divergence treatment (exxdiv) = ewald
    madelung (= occupied orbital energy shift) = 0.28404695511113776
    Total energy shift due to Ewald probe charge = -1/2 * Nelec*madelung/cell.vol = -2.556422596
DF object = <pyscf.pbc.df.fft.FFTDF object at 0x7f1ec4f68ed0>


******** <class 'pyscf.pbc.df.fft.FFTDF'> flags ********
mesh = [83 83 83] (571787 PWs)
len(kpts) = 1
XC functionals = lda
Uniform grid, mesh = [83 83 83]
Set conv_tol_grad to 3.16228e-05
Initial guess |g|= 0.394293
  HOMO = -0.041967172581854  LUMO = -0.0389305637260082
macro= 0  E= -84.0879093274563  delta_E= -84.0879  |g|= 0.230847  3 KF 17 JK
macro= 1  E= -84.1023380900237  delta_E= -0.0144288  |g|= 0.147293  2 KF 7 JK
macro= 2  E= -84.1063813904976  delta_E= -0.0040433  |g|= 0.0115618  3 KF 12 JK
macro= 3  E= -84.1073572926281  delta_E= -0.000975902  |g|= 0.015956  2 KF 8 JK
macro= 4  E= -84.1078873440733  delta_E= -0.000530051  |g|= 0.0176283  2 KF 6 JK
macro= 5  E= -84.1079994446988  delta_E= -0.000112101  |g|= 0.00143598  3 KF 11 JK
macro= 6  E= -84.108004798416  delta_E= -5.35372e-06  |g|= 0.000139239  2 KF 12 JK
macro= 7  E= -84.1080050326323  delta_E= -2.34216e-07  |g|= 8.43597e-05  1 KF 7 JK
macro= 8  E= -84.1080050880743  delta_E= -5.54421e-08  |g|= 3.99165e-05  1 KF 6 JK
macro= 9  E= -84.108005100947  delta_E= -1.28726e-08  |g|= 1.62533e-05  1 KF 6 JK
macro= 10  E= -84.1080051009898  delta_E= -4.27889e-11  |g|= 8.75185e-06  1 KF 2 JK
Canonicalize SCF orbitals
macro X = 11  E=-84.1080051009898  |g|= 8.75185e-06  total 21 KF 94 JK

WARN: HOMO -0.061631814283513116 > LUMO -0.09664018104173304 was found in the canonicalized orbitals.

converged SCF energy = -84.1080051009898
DFT energy (per unit cell) = -84.108005100989786
DFT compute time 1389.23117614
