tmpdir is set to /home/jyu5/work/testsets/alp
#INFO: **** input file is /home/jyu5/work/testsets/alp/pyscf_alp.py ****
#!/usr/bin/env python

from pyscf.pbc import gto, scf, dft
import numpy
import time
from pyscf.pbc.tools import lattice,pyscf_ase
import ase

cell = gto.Cell()
ase_atom = lattice.get_ase_atom('alp')
cell.atom=pyscf_ase.ase_atoms_to_pyscf(ase_atom)
cell.a=ase_atom.cell
cell.basis = 'gth-dzvp'
cell.pseudo = 'gth-pade'
cell.verbose=4
cell.build()

#mf = scf.RHF(cell)
#ehf = mf.kernel()
#print("HF energy (per unit cell) = %.17g" % ehf)

start = time.time()

mf = dft.RKS(cell)
mf = mf.newton()
mf.xc = 'lda'
mf.direct_scf=True
edft = mf.kernel()
print("DFT energy (per unit cell) = %.17g" % edft)


end = time.time()
print 'DFT compute time', (end-start)

#INFO: ******************** input file end ********************


System: ('Linux', 'pauling043', '3.10.0-327.36.3.el7.x86_64', '#1 SMP Thu Oct 20 04:56:07 EDT 2016', 'x86_64', 'x86_64')  Threads 1
Python 2.7.12 |Anaconda custom (64-bit)| (default, Jul  2 2016, 17:42:40) 
[GCC 4.4.7 20120313 (Red Hat 4.4.7-1)]
numpy 1.14.3  scipy 1.1.0
Date: Wed May  9 13:26:08 2018
PySCF version 1.5b
PySCF path  /home/jyu5/pyscf/pyscf
GIT HEAD      ref: refs/heads/dev
GIT dev branch  712e40e23e7a7c928f2e0c27498b3fa5f122454b

[ENV] PYSCF_MAX_MEMORY 20000
[ENV] PYSCF_TMPDIR /scratch/local/jyu5
[CONFIG] conf_file None
[INPUT] verbose = 4
[INPUT] num. atoms = 2
[INPUT] num. electrons = 8
[INPUT] charge = 0
[INPUT] spin (= nelec alpha-beta = 2S) = 0
[INPUT] symmetry False subgroup None
[INPUT] Mole.unit = angstrom
[INPUT]  1 Al     0.000000000000   0.000000000000   0.000000000000 AA    0.000000000000   0.000000000000   0.000000000000 Bohr
[INPUT]  2 P      2.575224091510   2.575224091510   2.575224091510 AA    4.866468242335   4.866468242335   4.866468242335 Bohr

nuclear repulsion = -4.62202209717731
number of shells = 6
number of NR pGTOs = 42
number of NR cGTOs = 26
basis = gth-dzvp
ecp = {}
CPU time:         0.40
lattice vectors  a1 [0.000000000, 9.732936485, 9.732936485]
                 a2 [9.732936485, 0.000000000, 9.732936485]
                 a3 [9.732936485, 9.732936485, 0.000000000]
dimension = 3
Cell volume = 1844
rcut = 34.700515672481274 (nimgs = [4 4 4])
lattice sum = 341 cells
precision = 1e-08
pseudo = gth-pade
ke_cutoff = 53.66455135139872
    = [38 38 38] mesh (54872 PWs)
ew_eta = 1.04812
ew_cut = 6.387468834321221 (nimgs = [1 1 1])

WARN: HOMO -0.0929874290975574 == LUMO -0.0929874290975457



******** <class 'pyscf.soscf.newton_ah.SecondOrderRHF'> flags ********
method = SecondOrderRHF-RKS-RHF-SCF
initial guess = minao
damping factor = 0
level shift factor = 0
DIIS = <class 'pyscf.scf.diis.CDIIS'>
DIIS start cycle = 1
DIIS space = 8
SCF tol = 1e-09
SCF gradient tol = None
max. SCF cycles = 50
direct_scf = True
direct_scf_tol = 1e-13
chkfile to save SCF result = /scratch/local/jyu5/tmp3UEeOF
max_memory 20000 MB (current use 66 MB)
******** PBC SCF flags ********
kpt = [0. 0. 0.]
Exchange divergence treatment (exxdiv) = ewald
    madelung (= occupied orbital energy shift) = 0.23553334046682461
    Total energy shift due to Ewald probe charge = -1/2 * Nelec*madelung/cell.vol = -0.942133361867
DF object = <pyscf.pbc.df.fft.FFTDF object at 0x7fe23fd94f90>


******** <class 'pyscf.pbc.df.fft.FFTDF'> flags ********
mesh = [38 38 38] (54872 PWs)
len(kpts) = 1
XC functionals = lda
Uniform grid, mesh = [38 38 38]
Set conv_tol_grad to 3.16228e-05
Initial guess |g|= 0.215795
  HOMO = -0.105490120568754  LUMO = -0.10255314289384
macro= 0  E= -8.38600082151446  delta_E= -8.386  |g|= 0.10139  3 KF 19 JK
macro= 1  E= -8.39720342694872  delta_E= -0.0112026  |g|= 0.0114604  4 KF 19 JK
macro= 2  E= -8.39871905392582  delta_E= -0.00151563  |g|= 0.0120957  3 KF 12 JK
macro= 3  E= -8.39891162341241  delta_E= -0.000192569  |g|= 0.00142358  3 KF 13 JK
macro= 4  E= -8.39891657760154  delta_E= -4.95419e-06  |g|= 6.78528e-05  3 KF 14 JK
macro= 5  E= -8.39891659394971  delta_E= -1.63482e-08  |g|= 2.52244e-05  1 KF 6 JK
macro= 6  E= -8.39891659609864  delta_E= -2.14893e-09  |g|= 1.08462e-05  1 KF 5 JK
macro= 7  E= -8.39891659655131  delta_E= -4.52673e-10  |g|= 1.57241e-05  1 KF 3 JK
macro= 8  E= -8.39891659655349  delta_E= -2.17604e-12  |g|= 1.00758e-05  1 KF 2 JK
Canonicalize SCF orbitals
macro X = 9  E=-8.39891659655349  |g|= 1.00758e-05  total 20 KF 93 JK

WARN: HOMO -0.09219778521189406 > LUMO -0.11903565611881428 was found in the canonicalized orbitals.

converged SCF energy = -8.39891659655349
DFT energy (per unit cell) = -8.3989165965534873
DFT compute time 92.3929271698
