tmpdir is set to /home/jyu5/work/testsets/sic
#INFO: **** input file is /home/jyu5/work/testsets/sic/pyscf_sic.py ****
#!/usr/bin/env python

from pyscf.pbc import gto, scf, dft
import numpy
import time
from pyscf.pbc.tools import lattice,pyscf_ase
import ase

cell = gto.Cell()
ase_atom = lattice.get_ase_atom('sic')
cell.atom=pyscf_ase.ase_atoms_to_pyscf(ase_atom)
cell.a=ase_atom.cell
cell.basis = 'gth-dzvp'
cell.pseudo = 'gth-pade'
cell.verbose=4
cell.build()

#mf = scf.RHF(cell)
#ehf = mf.kernel()
#print("HF energy (per unit cell) = %.17g" % ehf)

start = time.time()

mf = dft.RKS(cell)
mf = mf.newton()
mf.xc = 'lda'
mf.direct_scf=True
edft = mf.kernel()
print("DFT energy (per unit cell) = %.17g" % edft)


end = time.time()
print 'DFT compute time', (end-start)

#INFO: ******************** input file end ********************


System: ('Linux', 'pauling049', '3.10.0-327.36.3.el7.x86_64', '#1 SMP Thu Oct 20 04:56:07 EDT 2016', 'x86_64', 'x86_64')  Threads 1
Python 2.7.12 |Anaconda custom (64-bit)| (default, Jul  2 2016, 17:42:40) 
[GCC 4.4.7 20120313 (Red Hat 4.4.7-1)]
numpy 1.14.3  scipy 1.1.0
Date: Wed May  9 13:24:12 2018
PySCF version 1.5b
PySCF path  /home/jyu5/pyscf/pyscf
GIT HEAD      ref: refs/heads/dev
GIT dev branch  712e40e23e7a7c928f2e0c27498b3fa5f122454b

[ENV] PYSCF_MAX_MEMORY 20000
[ENV] PYSCF_TMPDIR /scratch/local/jyu5
[CONFIG] conf_file None
[INPUT] verbose = 4
[INPUT] num. atoms = 2
[INPUT] num. electrons = 8
[INPUT] charge = 0
[INPUT] spin (= nelec alpha-beta = 2S) = 0
[INPUT] symmetry False subgroup None
[INPUT] Mole.unit = angstrom
[INPUT]  1 Si     0.000000000000   0.000000000000   0.000000000000 AA    0.000000000000   0.000000000000   0.000000000000 Bohr
[INPUT]  2 C      2.055077013037   2.055077013037   2.055077013037 AA    3.883532719530   3.883532719530   3.883532719530 Bohr

nuclear repulsion = -5.54834831045166
number of shells = 6
number of NR pGTOs = 42
number of NR cGTOs = 26
basis = gth-dzvp
ecp = {}
CPU time:         0.36
lattice vectors  a1 [0.000000000, 7.767065439, 7.767065439]
                 a2 [7.767065439, 0.000000000, 7.767065439]
                 a3 [7.767065439, 7.767065439, 0.000000000]
dimension = 3
Cell volume = 937.132
rcut = 29.066746731157338 (nimgs = [4 4 4])
lattice sum = 437 cells
precision = 1e-08
pseudo = gth-pade
ke_cutoff = 149.38484025591353
    = [50 50 50] mesh (125000 PWs)
ew_eta = 1.69547
ew_cut = 4.039029016615322 (nimgs = [1 1 1])

WARN: HOMO -0.0526425302890678 == LUMO -0.0526425302890667



******** <class 'pyscf.soscf.newton_ah.SecondOrderRHF'> flags ********
method = SecondOrderRHF-RKS-RHF-SCF
initial guess = minao
damping factor = 0
level shift factor = 0
DIIS = <class 'pyscf.scf.diis.CDIIS'>
DIIS start cycle = 1
DIIS space = 8
SCF tol = 1e-09
SCF gradient tol = None
max. SCF cycles = 50
direct_scf = True
direct_scf_tol = 1e-13
chkfile to save SCF result = /scratch/local/jyu5/tmpYL6bHR
max_memory 20000 MB (current use 69 MB)
******** PBC SCF flags ********
kpt = [0. 0. 0.]
Exchange divergence treatment (exxdiv) = ewald
    madelung (= occupied orbital energy shift) = 0.29514764081051803
    Total energy shift due to Ewald probe charge = -1/2 * Nelec*madelung/cell.vol = -1.18059056324
DF object = <pyscf.pbc.df.fft.FFTDF object at 0x7ff17db92f90>


******** <class 'pyscf.pbc.df.fft.FFTDF'> flags ********
mesh = [50 50 50] (125000 PWs)
len(kpts) = 1
XC functionals = lda
Uniform grid, mesh = [50 50 50]
Set conv_tol_grad to 3.16228e-05
Initial guess |g|= 0.658141
  HOMO = -0.178982859145661  LUMO = -0.0714142468882773
macro= 0  E= -9.1333264845105  delta_E= -9.13333  |g|= 0.317782  3 KF 17 JK
macro= 1  E= -9.1448284458102  delta_E= -0.011502  |g|= 0.0670708  4 KF 20 JK
macro= 2  E= -9.14459523548157  delta_E= 0.00023321  |g|= 0.0346767  3 KF 15 JK
macro= 3  E= -9.14863073881752  delta_E= -0.0040355  |g|= 0.013008  4 KF 24 JK
macro= 4  E= -9.15105469531385  delta_E= -0.00242396  |g|= 0.0164104  3 KF 12 JK
macro= 5  E= -9.15112318810129  delta_E= -6.84928e-05  |g|= 0.000772394  3 KF 12 JK
macro= 6  E= -9.15112329118406  delta_E= -1.03083e-07  |g|= 2.27911e-05  2 KF 9 JK
macro= 7  E= -9.15112329122683  delta_E= -4.27711e-11  |g|= 1.09758e-05  1 KF 2 JK
Canonicalize SCF orbitals
macro X = 8  E=-9.15112329122683  |g|= 1.09758e-05  total 23 KF 111 JK

WARN: HOMO -0.07631010435635051 > LUMO -0.08605025245056108 was found in the canonicalized orbitals.

converged SCF energy = -9.15112329122683
DFT energy (per unit cell) = -9.1511232912268348
DFT compute time 271.802053928
